data_ICSD
_database_code_ICSH                1
_audit_creation_date               1986/07/25
_audit_update_record               2012/02/01
_chemical_name_systematic          'Oxotetratellurium Dichromate(III)'
_chemical_formula_structural       '(Te4 O) (Cr2 O10)'
_chemical_formula_sum              'Cr2 O11 Te4'
_chemical_formula_weight           790.389
_publ_section_title
;
Cr2 Te4 O11: une structure a anions complexes (Cr2 O10)(1)
;
loop_
_citation_id
_citation_journal_abbrev
_citation_year
_citation_journal_volume
_citation_journal_issue
_citation_page_first
_citation_page_last
_citation_journal_id_ASTM
primary 'Acta Crystallographica B (24,19638,1982)' 1976 32 * 175 180 ACBCAR
_publ_author_name                  'Meunier, G.;Frit, B.;Galy, J.'
_cell_length_a                     7.016(3)
_cell_length_b                     7.545(3)
_cell_length_c                     9.728(3)
_cell_angle_alpha                  90.
_cell_angle_beta                   99.69(5)
_cell_angle_gamma                  90.
_cell_volume                       507.61
_cell_formula_units_Z              2
_symmetry_space_group_name_H-M     'P 1 21/c 1'
_symmetry_Int_Tables_number        14
_symmetry_cell_setting             monoclinic
_refine_ls_R_factor_all            0.034
loop_
_symmetry_equiv_pos_site_id
_symmetry_equiv_pos_as_xyz
  1	'x, -y+1/2, z+1/2'
  2	'-x, -y, -z'
  3	'-x, y+1/2, -z+1/2'
  4	'x, y, z'
loop_
_atom_type_symbol
_atom_type_oxidation_number
Cr	3
O	-2
Te	4
loop_
_atom_site_label
_atom_site_type_symbol
_atom_site_symmetry_multiplicity
_atom_site_Wyckoff_symbol
_atom_site_fract_x
_atom_site_fract_y
_atom_site_fract_z
_atom_site_occupancy
_atom_site_attached_hydrogens
Te1 Te 4 e 0.1397(1) 0.8599(1) 0.1762(1) 1. 0 
Te2 Te 4 e 0.6723(1) 0.8618(2) 0.4158(1) 1. 0 
Cr1 Cr 4 e 0.3192(3) 0.5019(3) 0.3842(2) 1. 0 
O1 O 4 e 0.158(1) 0.649(1) 0.4866(7) 1. 0 
O2 O 4 e 0.563(1) 0.641(2) 0.4517(8) 1. 0 
O3 O 4 e 0.468(1) 0.375(1) 0.2623(8) 1. 0 
O4 O 4 e 0.127(1) 0.314(1) 0.3429(9) 1. 0 
O5 O 4 e 0.205(1) 0.644(1) 0.2121(7) 1. 0 
O6 O 2 d 0.5 0 0.5 1. 0 

#End of data_ICSD


